#LAMMPS data file

26520 atoms
2064 ellipsoids
60703 bonds
0 angles
0 dihedrals
0 impropers

82 atom types
38799 bond types
0 angle types

-925.77828472222217 925.77828472222217 xlo xhi
-925.77828472222217 925.77828472222217 ylo yhi
-925.77828472222217 925.77828472222217 zlo zhi

Atoms

1 6 -26.801146525039638 -258.2307518247307 55.71168915787644 0  1 1 0 
2 5 -27.9129708523281 -254.9276619356177 54.294007136983325 0  1 1 1 
3 4 -27.857756068126182 -255.87234316620163 50.590714634223886 0  1 1 0 
4 3 -27.07843018484036 -254.0794940235606 47.34204100679917 0  1 1 1 
5 12 -24.237366191591025 -254.7321560091552 44.42418597060635 0  1 1 0 
6 4 -21.46036128203538 -252.13472970650514 44.1169527926588 0  1 1 0 
7 6 -18.18363409841214 -253.51695935260918 42.968021915271024 0  1 1 0 
8 5 -14.781039805986849 -253.76348520175452 43.40596257287417 0  1 1 1 
9 3 -14.507833609756865 -251.15214670850781 40.430948476272775 0  1 1 1 
10 15 -16.637059676875076 -249.31796158103953 37.80130134049246 0  1 1 0 
11 4 -18.618052785116046 -248.9434212070445 34.54233472159155 0  1 1 0 
12 2 -21.769956901531415 -249.57578136654163 32.45114995601173 0  1 1 0 
13 2 -25.529775956185706 -250.4426470132877 33.36440691929524 0  1 1 0 
14 3 -29.341607482312142 -249.42145726920234 32.5957149620321 0  1 1 1 
15 6 -30.79334202621178 -248.24477123289432 35.32424340353081 0  1 1 0 
16 18 -30.949333965847885 -244.20825624680097 35.66497634062462 0  1 1 0 
17 5 -34.21432133851242 -242.68097645104862 33.7001125555686 0  1 1 1 
18 3 -37.3110502271404 -241.58934918264643 35.73100664131464 0  1 1 1 
19 12 -40.544866965666515 -243.07386071532616 34.76787871781248 0  1 1 0 
20 11 -39.95489091550546 -245.779338163196 31.823411287735055 0  1 1 0 
21 6 -40.80090992381691 -248.5891781121275 34.70359866177485 0  1 1 0 
22 4 -39.42608739745266 -252.04323780660957 33.74484890907114 0  1 1 0 
23 3 -39.369866052616345 -251.67272235945313 29.88237349713392 0  1 1 1 
24 6 -42.077449336671165 -250.75343141278879 27.367334278337356 0  1 1 0 
25 6 -45.36044265166579 -252.8974279590546 27.654523512881536 0  1 1 0 
26 5 -46.88138800236619 -254.7328219415815 24.4780118271278 0  1 1 1 
27 3 -44.34450530939122 -255.42434037412787 21.784571413421283 0  1 1 1 
28 15 -43.3229675563815 -255.54022397290922 17.83868194985618 0  1 1 0 
29 6 -41.019770470037535 -252.62804834917043 16.458614433395432 0  1 1 0 
30 18 -42.2581621387823 -255.05166883360377 13.470076628389277 0  1 1 0 
31 6 -39.81948517760613 -255.06575638511845 10.436067577057498 0  1 1 0 
32 4 -38.580155229976754 -251.25422515809976 10.563956575979491 0  1 1 0 
33 2 -37.34983320245799 -248.75741596864967 12.701629432105848 0  1 1 0 
34 2 -37.95494186622593 -244.9925717745854 11.70957515175887 0  1 1 0 
35 10 -36.34118280401989 -244.63211612226138 8.505732112978293 0  1 1 0 
36 3 -32.6399166435757 -243.69049563773132 9.63740156500906 0  1 1 1 
37 3 -29.78692283812214 -241.18319662952874 10.07069309659212 0  1 1 1 
38 18 -26.096726428576083 -241.45185860939054 8.341592790774342 0  1 1 0 
39 16 -25.22783521564958 -238.55010887438758 6.631469060938853 0  1 1 0.5 
40 5 -24.071438779657466 -237.53260897687048 10.05220439361496 0  1 1 1 
41 29 -21.375441998366806 -238.84575242301602 12.684421853618153 0  1 1 0 
42 25 -19.34594280970175 -240.32038256052402 15.708891322682303 0  1 1 1 
43 38 -19.332239131160765 -237.65581769461946 18.6729627742474 0  1 1 0 
44 22 -15.668060691848725 -236.50514217578757 18.615575366434175 0  1 1 0 
45 24 -15.662242236320065 -236.43568476245528 14.573232011523473 0  1 1 0 
46 30 -17.25082128130809 -233.1713454937746 13.724553292986288 0  1 1 0 
47 26 -15.460590659603692 -231.8774017709558 16.868004598222747 0  1 1 0 
48 31 -12.21987159903047 -232.42841745508403 15.200685488676415 0  1 1 0 
49 25 -12.923298712671302 -230.79746697591918 11.919017224989815 0  1 1 1 
50 28 -14.2156926792773 -227.79351273496917 14.106753030338606 0  1 1 -1 
51 40 -11.051014877293385 -227.6350273772831 16.394025100158157 0  1 1 0 
52 25 -9.057573929537847 -227.64457597028053 12.594456063549115 0  1 1 1 
53 25 -11.649831552553643 -224.61995381239825 11.748161559478222 0  1 1 1 
54 29 -10.301503134177734 -222.49517362221215 14.538655797410263 0  1 1 0 
55 32 -6.758638079512979 -223.87039146243632 15.488110628990938 0  1 1 0 
56 23 -5.94837846919421 -222.5509372702262 12.08179497629327 0  1 1 1 
57 35 -7.67452106819099 -219.39766746165736 11.156798046408287 0  1 1 0 
58 24 -7.1296556439902155 -216.26709840620094 12.97067907126877 0  1 1 0 
59 28 -10.248705861836939 -214.43207024324272 13.72638674106844 0  1 1 -1 
60 31 -11.255272273602143 -213.8483470523314 17.230399448945843 0  1 1 0 
61 31 -14.779217334742206 -215.61418791973955 17.733778312919974 0  1 1 0 
62 40 -16.657278457131326 -213.71353740213414 20.318442531700175 0  1 1 0 
63 25 -19.2131452095099 -211.02817165298455 19.01324022929709 0  1 1 1 
64 23 -18.21710544808018 -207.2259182623938 19.44519783226542 0  1 1 1 
65 31 -21.618376255288315 -205.8487365478124 20.839698273576733 0  1 1 0 
66 38 -21.961449922797 -208.74502002180967 23.31233084922122 0  1 1 0 
67 34 -18.13278396835471 -208.12566636015652 24.501167658138048 0  1 1 0 
68 32 -18.580795167868803 -204.61750971840587 24.776657013445355 0  1 1 0 
69 25 -21.894984746983923 -205.42332921530945 27.07222359272416 0  1 1 1 
70 31 -19.71321243449462 -207.3598396276349 29.175580763519267 0  1 1 0 
71 30 -16.64917863988881 -205.3267103682761 29.561357961395245 0  1 1 0 
72 25 -18.70257759202372 -202.3392035536341 30.334394624509144 0  1 1 1 
73 28 -20.702465191413204 -204.38038848780639 33.35095429473137 0  1 1 -1 
74 40 -17.20107495223559 -205.2548554085992 34.76003938569198 0  1 1 0 
75 26 -16.459683673436082 -201.8921811094229 34.91817270545406 0  1 1 0 
76 32 -19.13179808375776 -200.12820876735879 36.659872189057346 0  1 1 0 
77 27 -18.6685597086767 -202.2238192983922 39.7017053450076 0  1 1 -1 
78 34 -15.542521937260481 -200.6239844562478 39.903354672325726 0  1 1 0 
79 23 -15.431539355693701 -196.8522977226223 38.69540362824703 0  1 1 1 
80 24 -18.596872512466742 -194.59202310650204 37.96061296782454 0  1 1 0 
81 27 -18.60049492990466 -191.95740890757978 34.712159399010865 0  1 1 -1 
82 31 -16.44132958521059 -194.0477135273368 32.18191189153829 0  1 1 0 
83 25 -16.181980309915595 -194.59360789756386 28.611557229265678 0  1 1 1 
84 34 -13.874442616175175 -196.98737492367476 26.199792940652102 0  1 1 0 
85 32 -12.811610631250131 -196.18823040993777 23.01404238741856 0  1 1 0 
86 35 -13.537703185643531 -198.79959428775697 20.25627382368087 0  1 1 0 
87 35 -9.605532216500041 -199.7348436631678 20.527870863304766 0  1 1 0 
88 26 -9.774180416779942 -200.23225942611404 24.34278027656027 0  1 1 0 
89 30 -12.866808375240307 -202.867370103201 23.90539191471984 0  1 1 0 
90 21 -10.704361777988138 -204.47260675498075 21.045252223325456 0  1 1 0 
91 26 -7.584309939035983 -204.5368774032474 23.088133315721514 0  1 1 0 
92 31 -9.376614494027606 -206.40305795901864 25.624533564007567 0  1 1 0 
93 32 -10.926937104803267 -208.5441374669306 23.513790754916084 0  1 1 0 
94 28 -7.670915410818513 -210.01489661241035 22.023368738482727 0  1 1 -1 
95 26 -5.999965217304216 -210.20262076003073 25.46976514633056 0  1 1 0 
96 35 -9.439589248511297 -212.20455130479766 26.5988111556559 0  1 1 0 
97 28 -8.836891290706722 -214.67270940001737 23.692094885476227 0  1 1 -1 
98 26 -4.72528387753948 -215.06012642151774 24.074216580958836 0  1 1 0 
99 29 -6.109163912878228 -215.51651000015673 27.661867818682694 0  1 1 0 
100 31 -8.525382058325844 -218.15404047113265 27.445960840977893 0  1 1 0 
101 30 -6.481574261498874 -220.01901531407356 24.68099616564114 0  1 1 0 
102 26 -3.4784576425343094 -220.26913606968117 26.773394184312334 0  1 1 0 
103 31 -6.228998031119918 -221.57112482178545 29.415237680997464 0  1 1 0 
104 34 -7.5228242018723925 -224.01303139673996 27.637697096520803 0  1 1 0 
105 28 -4.047929295656039 -225.39531647826038 26.23683805765059 0  1 1 -1 
106 27 -3.44799818313551 -225.90882143840477 29.966827124751667 0  1 1 -1 
107 24 -7.292394238361494 -226.93409208257373 30.805849129020018 0  1 1 0 
108 37 -6.435400424911865 -229.7306749570376 28.118160199947134 0  1 1 0 
109 31 -3.1749913870710276 -230.67975536869508 29.688598141338176 0  1 1 0 
110 39 -4.6181929923851275 -230.65797396309472 33.19898875117643 0  1 1 0 
111 26 -7.394811060970587 -233.22355656263406 31.39864214396657 0  1 1 0 
112 40 -4.824424354720575 -235.6467784927991 30.429290480514666 0  1 1 0 
113 36 -3.4753087634406743 -235.408175203277 33.69136681777055 0  1 1 0.5 
114 26 -6.952784654627575 -236.65440241493312 34.89012358700637 0  1 1 0 
115 23 -6.675965117896482 -239.23910726853387 32.086886500729726 0  1 1 1 
116 25 -9.250821497236958 -237.77358576036306 29.461161565177033 0  1 1 1 
117 30 -10.421671858856534 -236.06967117307232 26.22089043230503 0  1 1 0 
118 24 -13.329554521146635 -233.88314629694293 28.2117281976043 0  1 1 0 
119 40 -12.682771588863323 -231.0551749964922 30.245546568137335 0  1 1 0 
120 21 -14.328488233430317 -230.4639825158345 33.49545433118276 0  1 1 0 
121 38 -14.316273381994387 -227.56006509153784 36.378958658632214 0  1 1 0 
122 23 -11.176471438788704 -229.36553895853498 38.1279355366511 0  1 1 1 
123 27 -8.9659685666159 -228.7983491625595 35.02749648387102 0  1 1 -1 
124 40 -9.675753449850657 -225.12130115284046 35.461154841695034 0  1 1 0 
125 32 -8.909446766121588 -224.88236084856828 39.64208237159002 0  1 1 0 
126 31 -5.600793976110577 -226.77590042079567 38.80872551087118 0  1 1 0 
127 26 -4.667338077698957 -224.40678388841354 36.20686622118237 0  1 1 0 
128 25 -5.299981580296037 -220.99088461615733 37.819312539303816 0  1 1 1 
129 25 -3.6758179684099286 -222.28124198878527 41.30289501450453 0  1 1 1 
130 40 -0.5889754658117982 -224.07321408450298 39.63439227770207 0  1 1 0 
131 25 0.007786586747064716 -221.0349595489394 37.58553505666857 0  1 1 1 
132 22 -0.44368819208659466 -219.01422492876708 40.75964431968465 0  1 1 0 
133 28 -2.9280660843657698 -216.66311133797893 39.71127576714563 0  1 1 -1 
134 25 -5.369680952272971 -217.43853883668734 42.327826206269414 0  1 1 1 
135 26 -4.675440875542914 -216.7457786581057 46.03006529551309 0  1 1 0 
136 15 -18.183729839967704 -209.56523372338836 2.894670576859278 0  1 1 0 
137 2 -21.986756195272307 -210.91644504726625 3.2529541224866723 0  1 1 0 
138 5 -21.603550985271507 -214.33369373609457 4.403963651870697 0  1 1 1 
139 2 -25.08510967066835 -215.50766713551067 3.0155087630302937 0  1 1 0 
140 3 -26.766472556182496 -215.64607798619477 6.400315215923271 0  1 1 1 
141 2 -25.522641963584796 -212.3207083094376 7.68183284719663 0  1 1 0 
142 2 -28.588868546548703 -210.32708102302894 6.896221752180765 0  1 1 0 
143 3 -27.340537763813572 -207.4509243704859 8.271853553162082 0  1 1 1 
144 2 -26.134571639183285 -203.84957601051448 9.012209184261394 0  1 1 0 
145 11 -22.390968321952467 -202.81204830476312 8.091706786388315 0  1 1 0 
146 2 -19.680334971263786 -201.4662522139012 5.736684967765956 0  1 1 0 
147 3 -17.297848643476108 -200.19385306772728 8.454154820539369 0  1 1 1 
148 2 -18.845026440762897 -198.11900305904854 11.233618737713067 0  1 1 0 
149 2 -20.763788965697486 -195.86569945172963 13.172845824007258 0  1 1 0 
150 6 -23.919361847101968 -195.22054613418632 15.104837274503714 0  1 1 0 
151 3 -25.04611232756487 -195.64236591838923 18.51561422863231 0  1 1 1 
152 5 -27.103578919999997 -198.80307742976478 17.83514643923 0  1 1 1 
153 16 -29.623340487397662 -201.215967118678 19.234731837834552 0  1 1 0.5 
154 5 -30.052547820211284 -205.09861242359895 20.08754468967042 0  1 1 1 
155 3 -30.297493520578655 -207.3406019115593 23.13911933544533 0  1 1 1 
156 10 -30.69548895314564 -208.41139351838055 26.794783808923814 0  1 1 0 
157 11 -29.453644321714062 -209.6440234536772 30.013831206107355 0  1 1 0 
158 5 -26.928535611438658 -208.51880426050081 32.363049930795704 0  1 1 1 
159 7 -25.574756118148706 -207.87048805012165 35.67881591399519 0  1 1 -1 
160 17 -22.923950872309977 -209.72261786629988 34.03210405450972 0  1 1 0 
161 40 -21.06056572098499 -212.75668616928385 32.18350513674878 0  1 1 0 
162 32 -23.599835381027997 -215.27735305974534 31.075615563931546 0  1 1 0 
163 22 -24.2533989569322 -213.18830920372514 27.93310697050731 0  1 1 0 
164 40 -20.460365974864075 -214.52604074004077 26.480280559116274 0  1 1 0 
165 24 -22.432576886476934 -217.16204385472878 24.299263041155676 0  1 1 0 
166 23 -21.510884440552463 -220.47964727915698 24.42030371094177 0  1 1 1 
167 38 -20.914219343189142 -222.09373155058293 20.801094652521844 0  1 1 0 
168 26 -18.369667839757472 -219.4350379636594 20.675348567530936 0  1 1 0 
169 40 -16.74006354130862 -220.4914589171987 24.231295175401055 0  1 1 0 
170 25 -16.716923328559794 -223.9583892759868 22.794730244755037 0  1 1 1 
171 25 -15.084428644849323 -222.6006962449054 19.583874477172376 0  1 1 1 
172 31 -12.347782387232396 -220.88036623429414 21.626255264281514 0  1 1 0 
173 26 -11.553367959997443 -223.99945236016734 23.72545808133453 0  1 1 0 
174 25 -11.717767065257048 -226.03965393887884 20.298158899521578 0  1 1 1 
175 25 -9.044108122255786 -223.0703186196731 19.373427818545725 0  1 1 1 
176 22 -7.277898813923637 -224.3774021785779 22.447490449347132 0  1 1 0 
177 22 -7.33581316903241 -228.3298722381777 20.969022935213758 0  1 1 0 
178 30 -10.37921086580691 -229.56256253272912 23.564991188248555 0  1 1 0 
179 23 -11.894857321918543 -232.41721966570677 21.47281300751267 0  1 1 1 
180 25 -14.83327140728893 -232.8735440099065 24.00198192397925 0  1 1 1 
181 40 -16.39538524378278 -230.70344499639165 26.620229800575867 0  1 1 0 
182 35 -18.316879670432723 -231.2734958737529 30.08850919485581 0  1 1 0 
183 22 -21.816600310350523 -228.85578484958592 29.64848549221842 0  1 1 0 
184 31 -20.31414949949491 -227.71858081271884 32.71966063936345 0  1 1 0 
185 40 -17.385979846461122 -225.90673858554675 31.668742396013133 0  1 1 0 
186 29 -19.544987295896725 -222.2484905346941 30.37545109202041 0  1 1 0 
187 28 -20.131175678359124 -221.07609184864765 33.866867884057044 0  1 1 -1 
188 28 -16.731689212205936 -222.01138581430183 35.01721696882784 0  1 1 -1 
189 24 -15.507615125613468 -220.16530184620925 31.50540082114359 0  1 1 0 
190 25 -16.85892503215796 -217.06530432103494 32.36312472943778 0  1 1 1 
191 22 -15.06891611164886 -217.85443416371425 35.73259980192519 0  1 1 0 
192 30 -11.657466772684874 -218.00745780267658 34.45339702621718 0  1 1 0 
193 31 -12.580791505126465 -215.0222949577299 32.51198830629882 0  1 1 0 
194 23 -14.44936615364599 -212.8154571513095 35.45563145216597 0  1 1 1 
195 30 -11.74004224529352 -212.6657362924684 37.888344519924644 0  1 1 0 
196 34 -9.156676080836675 -212.03547590482546 35.06725753293781 0  1 1 0 
197 31 -10.429552446456627 -209.55565154180073 33.05701045085867 0  1 1 0 
198 28 -12.159560389595592 -207.68693341084202 35.696622390832964 0  1 1 -1 
199 37 -8.474269319659951 -207.57401585923597 37.350315914018424 0  1 1 0 
200 30 -7.219733662406462 -206.06937321857535 33.894010772020145 0  1 1 0 
201 40 -10.099282812804269 -203.69389999465815 33.939977214956386 0  1 1 0 
202 25 -9.6516356436227 -202.45099977182065 37.79671600277879 0  1 1 1 
203 27 -6.27061392256496 -201.47721980858935 36.82611848214638 0  1 1 -1 
204 26 -6.843681758790394 -200.18129771355163 33.36515176031112 0  1 1 0 
205 30 -9.49418190037384 -197.80003982469646 35.10508069250646 0  1 1 0 
206 24 -6.732225882300723 -197.0420781306576 37.973482357447985 0  1 1 0 
207 29 -4.411128322597948 -196.4180783214963 35.09517919007858 0  1 1 0 
208 24 -7.330358506960355 -194.08498780028674 33.254698187037036 0  1 1 0 
209 28 -7.570647865960718 -191.72077246870327 36.38796012710776 0  1 1 -1 
210 36 -4.114803662761689 -192.02980553747025 36.632900417244535 0  1 1 0.5 
211 26 -3.9276953701467248 -190.88981406089263 32.99745380115167 0  1 1 0 
212 23 -5.71064819346026 -187.85084516377574 33.44204699342176 0  1 1 1 
213 25 -8.99018522491692 -189.57032560929292 31.96532956813467 0  1 1 1 
214 23 -12.587139478913565 -190.49752258767052 31.849874686662872 0  1 1 1 
215 24 -12.3879977516418 -192.56243466624645 28.67303675735725 0  1 1 0 
216 30 -10.231723972696425 -195.77926907315899 29.17807385633411 0  1 1 0 
217 24 -7.441637681717564 -195.75079856057346 26.280892492995076 0  1 1 0 
218 26 -5.54218553046319 -198.8142757604883 24.476454052019914 0  1 1 0 
219 21 -2.402537591584098 -197.61437897024342 26.179768118706022 0  1 1 0 
220 27 -4.0602217457923455 -198.23562483364145 29.53976840521095 0  1 1 -1 
221 30 -4.932178951751368 -201.7390258055776 28.580774804795666 0  1 1 0 
222 30 -1.2104486809780162 -202.20481292275417 27.473634216352373 0  1 1 0 
223 29 -0.5461917959923015 -200.51439771300318 31.09332333421903 0  1 1 0 
224 26 -2.7674584681643077 -203.49111837188372 32.90259017099247 0  1 1 0 
225 31 -0.9880545490238527 -206.00801184258466 30.735754899495856 0  1 1 0 
226 23 2.2632657767968185 -205.30485375519476 31.284362831053123 0  1 1 1 
227 25 2.7452600558907427 -205.09150002322266 35.22238030829339 0  1 1 1 
228 32 0.26640639641728703 -208.0948980514539 35.251749727997236 0  1 1 0 
229 22 2.6028193968684814 -210.22391879498252 32.61789290590903 0  1 1 0 
230 25 0.2650522373019025 -210.69290450037806 29.613801293778362 0  1 1 1 
231 24 1.7238602405914234 -208.04639043836505 27.41456434598234 0  1 1 0 
232 31 -0.2742152859764673 -206.4220718563025 24.61309339863203 0  1 1 0 
233 29 1.8742640593499214 -206.0306131404049 21.251944494699156 0  1 1 0 
234 22 0.15843195881081426 -204.1927627526675 18.21079014748978 0  1 1 0 
235 34 -1.7564907923262754 -201.28117545785025 20.30386528639093 0  1 1 0 
236 22 1.2621882472077668 -199.22864991353686 21.599332015200435 0  1 1 0 
237 22 4.602249829244143 -198.16055259181485 20.42492005289214 0  1 1 0 
238 15 32.73955860743896 -206.42891314390653 72.88687238147617 0  1 1 0 
239 2 31.995725970408177 -210.08865727538839 73.90364039815391 0  1 1 0 
240 5 29.627521771294393 -212.305659133464 75.68400949912855 0  1 1 1 
241 2 25.926597078759535 -211.53705199202886 75.58821001344481 0  1 1 0 
242 3 22.294606058221408 -211.53512487024736 75.54291529728225 0  1 1 1 
243 12 20.907560200670556 -207.99779936777193 76.08080793471125 0  1 1 0 
244 2 19.53054864695113 -204.66649866470814 77.74795190234549 0  1 1 0 
245 2 21.41542358873305 -202.0888808491212 79.49108157897903 0  1 1 0 
246 3 22.953222109589383 -198.56702106660322 79.50258245574054 0  1 1 1 
247 4 22.225745394193215 -194.76669135806983 78.95292591504183 0  1 1 0 
248 5 21.569710194858118 -193.53948202617272 75.28174861600333 0  1 1 1 
249 6 18.379202666938657 -193.2331856938625 73.20774176521539 0  1 1 0 
250 3 16.48695186933871 -192.16514238653087 70.3663935426335 0  1 1 1 
251 6 16.3097228691879 -188.20757445926665 69.29888914080072 0  1 1 0 
252 3 18.129723486166235 -185.00157896228922 70.81000687110213 0  1 1 1 
253 4 16.715112927419202 -183.64069315769513 67.43741265662622 0  1 1 0 
254 5 13.353931564219334 -182.7391888037746 66.15778296010137 0  1 1 1 
255 15 12.30559521802658 -181.1123443494747 63.04028623144216 0  1 1 0 
256 15 9.361829857156081 -181.86106701703733 60.78264502425665 0  1 1 0 
257 5 6.289552592147425 -184.05576168734174 61.268508705883704 0  1 1 1 
258 26 3.6082760361903654 -185.7080324522829 58.91168342923509 0  1 1 0 
259 22 3.1444703503116154 -187.8441418245392 61.87218702294574 0  1 1 0 
260 31 5.131643071500532 -190.92765323699513 60.317847461395004 0  1 1 0 
261 32 6.760632640923918 -193.4928322386611 62.61650783691927 0  1 1 0 
262 34 8.82621504422794 -194.56149120490662 60.09851027005194 0  1 1 0 
263 38 12.129944578631553 -193.08247696757596 58.227147808500014 0  1 1 0 
264 30 10.545693139304637 -190.43258971162865 55.66090875891145 0  1 1 0 
265 22 13.808846903778818 -188.7162454535898 55.36215283585879 0  1 1 0 
266 25 15.756658799579931 -191.96221049227736 54.216388027184934 0  1 1 1 
267 30 13.076429134669336 -192.84911073403637 51.9696875648695 0  1 1 0 
268 36 13.380111425075398 -189.3543760763065 50.1124520654636 0  1 1 0.5 
269 25 16.66608568196113 -189.73621547529692 49.5557773264076 0  1 1 1 
270 31 16.225484011686515 -193.418264709758 48.43710614706261 0  1 1 0 
271 31 13.739578252419097 -192.4679130368476 45.87388529681542 0  1 1 0 
272 25 16.427457194561402 -189.30677173967223 44.950287426287176 0  1 1 1 
273 23 19.596342873369327 -191.2334141284069 44.44780018369765 0  1 1 1 
274 22 17.678016550967612 -194.60749400871754 43.29361707716922 0  1 1 0 
275 37 17.596093366576625 -193.9328030231234 39.614869333596396 0  1 1 0 
276 29 13.804508418894105 -193.4263113467628 39.47470496943374 0  1 1 0 
277 26 13.959625962408646 -189.98140222419315 37.82504595032793 0  1 1 0 
278 28 15.128167285855952 -186.46790439102224 37.27370545707785 0  1 1 -1 
279 25 13.136943768193408 -185.11467122605566 40.190740435746086 0  1 1 1 
280 30 11.1477477745073 -186.54861631496152 43.426200388213324 0  1 1 0 
281 22 8.273092709785605 -184.23143648992178 44.86041676073562 0  1 1 0 
282 26 8.521606249588665 -184.13558405957417 48.64506654280109 0  1 1 0 
283 22 4.797487162904261 -185.22145171277964 48.938767492030514 0  1 1 0 
284 26 5.879724216367034 -188.88884431000878 47.634311940312486 0  1 1 0 
285 38 8.440354929702737 -189.9418962889671 50.43968309764137 0  1 1 0 
286 30 5.773640453470352 -189.02239048417294 53.1219130651099 0  1 1 0 
287 29 2.5962728212808055 -191.00930314391135 51.31468089971346 0  1 1 0 
288 31 5.030910666278701 -194.09568834452548 51.04391411075197 0  1 1 0 
289 26 6.740802881647252 -194.39123136808146 54.2074983038904 0  1 1 0 
290 26 3.242730398383872 -194.02967878671774 55.903099156319094 0  1 1 0 
291 30 2.611611922128846 -197.17499006938388 53.256800831738786 0  1 1 0 
292 31 5.52385411528111 -199.39875407212895 54.59294398329209 0  1 1 0 
293 28 4.888840884947277 -198.89644956278116 57.976453070241675 0  1 1 -1 
294 29 1.1284763206131714 -199.599320353466 57.63547481727837 0  1 1 0 
295 31 2.425239194529578 -202.99303570640842 55.762478204562235 0  1 1 0 
296 24 4.873985673117359 -203.39207828034026 58.66028543772848 0  1 1 0 
297 26 2.2672873814514283 -203.84824630293824 61.13816900166308 0  1 1 0 
298 28 0.030969701469035438 -205.7359573021463 58.650802517112155 0  1 1 -1 
299 40 2.0089272517602152 -208.66481654099852 58.476869109294924 0  1 1 0 
300 31 3.4813979260088317 -208.26416114322492 62.149996716162796 0  1 1 0 
301 28 0.04075632236475767 -208.14157112803892 63.76669319632613 0  1 1 -1 
302 31 -0.6980204616319347 -211.468412808091 62.253164462523664 0  1 1 0 
303 26 2.6520514698213766 -213.12265241451885 63.38507461635008 0  1 1 0 
304 22 2.132329588501365 -211.67644405152325 67.0879781448279 0  1 1 0 
305 37 -1.2710955596778728 -213.30650310698164 66.78898631576973 0  1 1 0 
306 26 0.08114174425048713 -216.5787700256187 65.48502496251415 0  1 1 0 
307 26 3.091439853411068 -216.41193280578923 68.40810448594665 0  1 1 0 
308 25 0.5724673421496579 -215.3521473254972 71.06828723035298 0  1 1 1 
309 27 -1.5754914623183869 -218.41027888387345 70.03285306136279 0  1 1 -1 
310 37 1.7531261914486636 -220.4517143584455 70.13267766312256 0  1 1 0 
311 23 2.201010667653216 -218.82133471704137 73.7828618722915 0  1 1 1 
312 23 5.462690964606226 -217.27932995591422 72.38878846462836 0  1 1 1 
313 24 6.6541302164466885 -213.70928253274744 73.05393204639547 0  1 1 0 
314 25 9.516777553731272 -213.23173454741288 70.45098326642785 0  1 1 1 
315 40 8.650809850850326 -213.03576412135726 66.99328966471113 0  1 1 0 
316 40 10.804612408038498 -215.4830716450149 65.04738880199201 0  1 1 0 
317 38 10.43925913697397 -215.9635141544704 60.98755829724658 0  1 1 0 
318 25 8.340667360975418 -219.31409353271084 61.87799645711988 0  1 1 1 
319 36 5.487923896059594 -216.62323354902801 62.963790537725075 0  1 1 0.5 
320 31 6.371309916412369 -214.77102964782148 59.89034889675575 0  1 1 0 
321 32 5.800226997772368 -217.72930175250747 57.560990573200634 0  1 1 0 
322 31 2.459802444330022 -217.9606184123453 58.73823717743766 0  1 1 0 
323 26 1.9214775625905258 -214.28233061120184 58.79678931320825 0  1 1 0 
324 30 2.3754648602169497 -213.80336865911087 54.75918819928803 0  1 1 0 
325 25 -0.2565449018536265 -216.3541743363347 54.306679394019426 0  1 1 1 
326 37 -2.7535679821581267 -215.83316988760768 57.08612534545311 0  1 1 0 
327 27 -4.254360079753327 -213.34810073259897 55.03329213804396 0  1 1 -1 
328 28 -5.843120560063568 -213.50463203535492 51.78396283604265 0  1 1 -1 
329 28 -4.385741947043832 -210.57797704338032 50.47773302764918 0  1 1 -1 
330 31 -0.706373523183334 -210.76859721239143 51.88636949782346 0  1 1 0 
331 37 -0.5446542323660997 -213.75802341733402 50.43971829184772 0  1 1 0 
332 23 -1.4123923277252495 -212.13249354923582 47.24001078703394 0  1 1 1 
333 31 2.2033054940750962 -210.55132449681324 47.33948209137384 0  1 1 0 
334 31 4.350357590079244 -213.02119341825554 49.41928758917946 0  1 1 0 
335 22 2.6208866585632853 -216.26226636580807 48.92999035303208 0  1 1 0 
336 25 5.814039281598186 -218.42958550974924 48.09394635773731 0  1 1 1 
337 30 8.311865314336055 -215.94017750458517 48.96844899521788 0  1 1 0 
338 24 11.042609263032677 -217.20351047585916 51.000156364713796 0  1 1 0 
339 40 11.618675416477005 -216.73780807323266 54.41281232690749 0  1 1 0 
340 26 14.969136475734116 -217.48019429563516 55.83189987355019 0  1 1 0 
341 32 14.43364894313173 -220.2189719981917 58.52940715294744 0  1 1 0 
342 22 10.696484754610712 -219.83309995430832 57.94491980551352 0  1 1 0 
343 22 10.003517205432043 -223.36894162406546 56.43294646153018 0  1 1 0 
344 30 7.057146127333288 -224.07528136247385 54.570334651413155 0  1 1 0 
345 31 3.3867236731677273 -224.48130124294403 56.28356072228916 0  1 1 0 
346 38 2.0669238339933074 -227.84971032840488 57.455654430359715 0  1 1 0 
347 37 -1.1907286918943263 -228.98286473730067 56.113746272753346 0  1 1 0 
348 40 -1.6346567259674882 -230.9171306485462 53.121587991350765 0  1 1 0 
349 32 -1.5273409562722589 -228.88991733092774 49.347898875358396 0  1 1 0 
350 35 -5.246400824259428 -227.44971646571958 49.42089501601962 0  1 1 0 
351 10 -8.337054228723497 -227.12520741840916 47.57682771902904 0  1 1 0 
352 11 -10.559454583553228 -229.57500524948983 45.430825614482806 0  1 1 0 
353 11 -9.199248410173594 -233.24918038919347 45.99320068266146 0  1 1 0 
354 18 -10.869006398870738 -235.24373534256415 49.04440814859154 0  1 1 0 
355 3 -11.09971959502052 -232.50691919850775 51.62734091024407 0  1 1 1 
356 3 -14.236774780235661 -231.82810305568788 53.602973813213275 0  1 1 1 
357 4 -17.373340154839916 -230.24089794461037 53.08601804734485 0  1 1 0 
358 8 -18.925674153027387 -228.55718810388274 49.844804409494934 0  1 1 -1 
359 15 -20.7341208222809 -229.65074310199395 46.73996553676227 0  1 1 0 
360 15 -20.191970934436945 -232.7922202836016 44.344429517378074 0  1 1 0 
361 3 -22.40038053858926 -235.74916082567734 43.61056865012842 0  1 1 1 
362 15 -24.485582003381854 -236.18551457922462 46.91358574670418 0  1 1 0 
363 3 -27.745349602253015 -234.3685576487287 46.524720798977114 0  1 1 1 
364 15 -27.891633612559403 -231.104459968357 47.51262002018282 0  1 1 0 
365 3 -30.451433814292635 -229.9197518532613 50.05978178541115 0  1 1 1 
366 6 67.03961053593476 -228.92234231893386 59.803847265098746 0  1 1 0 
367 3 63.97629271919204 -227.38014364578066 59.43671626701957 0  1 1 1 
368 15 64.36919508358012 -224.1443115953871 61.508826244408425 0  1 1 0 
369 6 65.45839067923364 -220.81000558966724 60.83938494893643 0  1 1 0 
370 18 62.32188475706873 -219.43040188272883 59.65620810101519 0  1 1 0 
371 6 60.64963528021249 -222.35161936082505 57.7183303727837 0  1 1 0 
372 18 56.98073808203925 -222.79018316111672 58.55019145421701 0  1 1 0 
373 3 55.20767677080701 -225.3973313296032 60.5697813779118 0  1 1 1 
374 3 53.65823416051594 -228.1518647401256 62.76908283662469 0  1 1 1 
375 2 50.11237016648719 -229.77685069594784 63.09293553966862 0  1 1 0 
376 15 47.79976124162568 -232.92013243253479 64.17707346267274 0  1 1 0 
377 3 47.413525466812786 -236.49778999194976 64.31552591152112 0  1 1 1 
378 3 45.08665026761847 -239.28543267916044 65.17549627527698 0  1 1 1 
379 6 43.57889928479706 -240.1021662816796 68.31714437218085 0  1 1 0 
380 10 41.77572742171456 -237.00850104574252 69.59603315935085 0  1 1 0 
381 4 38.265476630913255 -235.55962328145935 70.96634975165898 0  1 1 0 
382 3 35.148548111046566 -237.0522259686501 71.69208020816755 0  1 1 1 
383 4 33.06693126040922 -234.7805565195876 69.5599910451213 0  1 1 0 
384 12 32.1993787584433 -231.83438931089117 67.45374783923269 0  1 1 0 
385 3 34.42856629139569 -229.0177158804528 66.37688986949021 0  1 1 1 
386 3 32.340654756918745 -228.1484166513178 63.29957716999324 0  1 1 1 
387 7 32.506879643289956 -226.3339294952024 59.98750390862767 0  1 1 -1 
388 2 28.784836135981273 -226.4555031770633 60.343201681163805 0  1 1 0 
389 3 28.548638877017545 -222.5400167684663 59.579115184416516 0  1 1 1 
390 3 29.3770118430272 -218.96748971744813 60.17568532020161 0  1 1 1 
391 25 28.899501112842774 -215.42791806585828 61.46954355981126 0  1 1 1 
392 25 27.988844516796377 -212.68472483771353 59.214282417561755 0  1 1 1 
393 23 29.704963013080366 -210.79510896225628 56.4135701193938 0  1 1 1 
394 24 29.882001205364475 -207.09341455558388 56.9264774891435 0  1 1 0 
395 25 26.375286672685984 -206.4607705760449 58.268270809153286 0  1 1 1 
396 23 24.136906117883356 -204.38515554150553 57.15277870390732 0  1 1 1 
397 28 20.22988033069143 -203.88184768867558 56.50037949060625 0  1 1 -1 
398 35 18.411632203007716 -200.9270625489397 58.324966806835064 0  1 1 0 
399 29 14.94128176602959 -200.18978826432354 59.180010270036426 0  1 1 0 
400 26 14.961345251394421 -202.33553227709876 62.37559203745459 0  1 1 0 
401 40 15.044734452229456 -199.73791400147527 64.67952209542884 0  1 1 0 
402 29 11.601225653969653 -198.5357376334015 63.10256624949183 0  1 1 0 